 argument  1 = ./job_cpu1/job_cpu1.nw
                                         
                                         


              Northwest Computational Chemistry Package (NWChem) 6.3
              ------------------------------------------------------


                    Environmental Molecular Sciences Laboratory
                       Pacific Northwest National Laboratory
                                Richland, WA 99352

                              Copyright (c) 1994-2012
                       Pacific Northwest National Laboratory
                            Battelle Memorial Institute

             NWChem is an open-source computational chemistry package
                        distributed under the terms of the
                      Educational Community License (ECL) 2.0
             A copy of the license is included with this distribution
                              in the LICENSE.TXT file

                                  ACKNOWLEDGMENT
                                  --------------

            This software and its documentation were developed at the
            EMSL at Pacific Northwest National Laboratory, a multiprogram
            national laboratory, operated for the U.S. Department of Energy
            by Battelle under Contract Number DE-AC05-76RL01830. Support
            for this work was provided by the Department of Energy Office
            of Biological and Environmental Research, Office of Basic
            Energy Sciences, and the Office of Advanced Scientific Computing.


           Job information
           ---------------

    hostname        = gellmann.scs.illinois.edu
    program         = nwchem.x
    date            = Fri Mar 31 10:27:04 2017

    compiled        = Fri_Feb_13_11:01:25_2015
    source          = /home/masalim2/nwchem-6.3.5
    nwchem branch   = 6.3
    nwchem revision = 24652
    ga revision     = 10379
    input           = ./job_cpu1/job_cpu1.nw
    prefix          = job_cpu1.
    data base       = ./job_cpu1/job_cpu1.db
    status          = startup
    nproc           =        1
    time left       =     -1s



           Memory information
           ------------------

    heap     =  124518401 doubles =    950.0 Mbytes
    stack    =  124518401 doubles =    950.0 Mbytes
    global   =  249036800 doubles =   1900.0 Mbytes (distinct from heap & stack)
    total    =  498073602 doubles =   3800.0 Mbytes
    verify   = yes
    hardfail = no 


           Directory information
           ---------------------

  0 permanent = ./job_cpu1
  0 scratch   = ./job_cpu1




                                NWChem Input Module
                                -------------------


                                BIM DIPOLE (MONO 2)
                                -------------------

 Scaling coordinates for geometry "geometry" by  1.889725989
 (inverse scale =  0.529177249)



                             Geometry "geometry" -> ""
                             -------------------------

 Output coordinates in angstroms (scale by  1.889725989 to convert to a.u.)

  No.       Tag          Charge          X              Y              Z
 ---- ---------------- ---------- -------------- -------------- --------------
    1 F                    9.0000     1.13298183     0.50040071     0.00000000
    2 H                    1.0000     2.01206326     0.14580543     0.00000000

      Atomic Mass 
      ----------- 

      F                 18.998400
      H                  1.007825


 Effective nuclear repulsion energy (a.u.)       5.0243434927

            Nuclear Dipole moment (a.u.) 
            ----------------------------
        X                 Y               Z
 ---------------- ---------------- ----------------
    23.0714751117     8.7861143479     0.0000000000


            XYZ format geometry
            -------------------
     2
 geometry
 F                     1.13298183     0.50040071     0.00000000
 H                     2.01206326     0.14580543     0.00000000

 ==============================================================================
                                internuclear distances
 ------------------------------------------------------------------------------
       center one      |      center two      | atomic units |  angstroms
 ------------------------------------------------------------------------------
    2 H                |   1 F                |     1.79128  |     0.94790
 ------------------------------------------------------------------------------
                         number of included internuclear distances:          1
 ==============================================================================



  warning:::::::::::::: from_compile
  NWCHEM_BASIS_LIBRARY is: </home/masalim2/nwchem-6.3.5/src/basis/libraries/>
  but file does not exist or you do not have access to it !


 Summary of "ao basis" -> "" (spherical)
 ------------------------------------------------------------------------------
       Tag                 Description            Shells   Functions and Types
 ---------------- ------------------------------  ------  ---------------------
 *                           4-31g                    on all atoms 


 Attempting to read a basis set from a  non-existing file:
 /home/masalim2/nwchem-6.3.5/src/basis/libraries/4-31g                                                                                                                                                                                                          
 ------------------------------------------------------------------------
 bas_tag_lib: failed opening basis file        0
 ------------------------------------------------------------------------
 There is an error in the specified basis set
 ------------------------------------------------------------------------
 For more information see the NWChem manual at http://www.nwchem-sw.org/index.php/NWChem_Documentation


 For further details see manual section:                                                                                                                                                                                                                                                                
0:0:bas_tag_lib: failed opening basis file:: -1
(rank:0 hostname:gellmann.scs.illinois.edu pid:30727):ARMCI DASSERT fail. ../../ga-5-2/armci/src/common/armci.c:ARMCI_Error():208 cond:0
  0: ARMCI aborting -1 (0xffffffffffffffff).
